ITEM: TIMESTEP
0
ITEM: NUMBER OF ATOMS
4096
ITEM: BOX BOUNDS pp pp pp
0.0000000000000000e+00 8.8348372426434469e+00
0.0000000000000000e+00 1.5302386980860174e+01
0.0000000000000000e+00 1.4427228803342626e+01
ITEM: ATOMS id type x y z 
1 1 0 0 0 
2 1 0.552177 0.956399 0 
4 1 0 0.637599 0.901702 
5 1 1.10435 0 0 
8 1 1.10435 0.637599 0.901702 
2049 1 0 0 0.676276 
2050 1 0.552177 0.956399 0.676276 
2053 1 1.10435 0 0.676276 
6 1 1.65653 0.956399 0 
9 1 2.20871 0 0 
10 1 2.76089 0.956399 0 
12 1 2.20871 0.637599 0.901702 
2054 1 1.65653 0.956399 0.676276 
2057 1 2.20871 0 0.676276 
2058 1 2.76089 0.956399 0.676276 
13 1 3.31306 0 0 
14 1 3.86524 0.956399 0 
16 1 3.31306 0.637599 0.901702 
2061 1 3.31306 0 0.676276 
2062 1 3.86524 0.956399 0.676276 
17 1 4.41742 0 0 
18 1 4.9696 0.956399 0 
20 1 4.41742 0.637599 0.901702 
21 1 5.52177 0 0 
24 1 5.52177 0.637599 0.901702 
2065 1 4.41742 0 0.676276 
2066 1 4.9696 0.956399 0.676276 
2069 1 5.52177 0 0.676276 
22 1 6.07395 0.956399 0 
25 1 6.62613 0 0 
26 1 7.17831 0.956399 0 
28 1 6.62613 0.637599 0.901702 
2070 1 6.07395 0.956399 0.676276 
2073 1 6.62613 0 0.676276 
2074 1 7.17831 0.956399 0.676276 
29 1 7.73048 0 0 
30 1 8.28266 0.956399 0 
32 1 7.73048 0.637599 0.901702 
2077 1 7.73048 0 0.676276 
2078 1 8.28266 0.956399 0.676276 
3 1 0.552177 1.594 0.901702 
33 1 0 1.9128 0 
34 1 0.552177 2.8692 0 
36 1 0 2.5504 0.901702 
37 1 1.10435 1.9128 0 
40 1 1.10435 2.5504 0.901702 
2081 1 0 1.9128 0.676276 
2082 1 0.552177 2.8692 0.676276 
2085 1 1.10435 1.9128 0.676276 
7 1 1.65653 1.594 0.901702 
11 1 2.76089 1.594 0.901702 
38 1 1.65653 2.8692 0 
41 1 2.20871 1.9128 0 
42 1 2.76089 2.8692 0 
44 1 2.20871 2.5504 0.901702 
2086 1 1.65653 2.8692 0.676276 
2089 1 2.20871 1.9128 0.676276 
2090 1 2.76089 2.8692 0.676276 
15 1 3.86524 1.594 0.901702 
45 1 3.31306 1.9128 0 
46 1 3.86524 2.8692 0 
48 1 3.31306 2.5504 0.901702 
2093 1 3.31306 1.9128 0.676276 
2094 1 3.86524 2.8692 0.676276 
19 1 4.9696 1.594 0.901702 
49 1 4.41742 1.9128 0 
50 1 4.9696 2.8692 0 
52 1 4.41742 2.5504 0.901702 
53 1 5.52177 1.9128 0 
56 1 5.52177 2.5504 0.901702 
2097 1 4.41742 1.9128 0.676276 
2098 1 4.9696 2.8692 0.676276 
2101 1 5.52177 1.9128 0.676276 
23 1 6.07395 1.594 0.901702 
27 1 7.17831 1.594 0.901702 
54 1 6.07395 2.8692 0 
57 1 6.62613 1.9128 0 
58 1 7.17831 2.8692 0 
60 1 6.62613 2.5504 0.901702 
2102 1 6.07395 2.8692 0.676276 
2105 1 6.62613 1.9128 0.676276 
2106 1 7.17831 2.8692 0.676276 
31 1 8.28266 1.594 0.901702 
61 1 7.73048 1.9128 0 
62 1 8.28266 2.8692 0 
64 1 7.73048 2.5504 0.901702 
2109 1 7.73048 1.9128 0.676276 
2110 1 8.28266 2.8692 0.676276 
35 1 0.552177 3.5068 0.901702 
65 1 0 3.8256 0 
68 1 0 4.4632 0.901702 
69 1 1.10435 3.8256 0 
72 1 1.10435 4.4632 0.901702 
2113 1 0 3.8256 0.676276 
2117 1 1.10435 3.8256 0.676276 
39 1 1.65653 3.5068 0.901702 
43 1 2.76089 3.5068 0.901702 
73 1 2.20871 3.8256 0 
76 1 2.20871 4.4632 0.901702 
2121 1 2.20871 3.8256 0.676276 
47 1 3.86524 3.5068 0.901702 
77 1 3.31306 3.8256 0 
80 1 3.31306 4.4632 0.901702 
2125 1 3.31306 3.8256 0.676276 
51 1 4.9696 3.5068 0.901702 
81 1 4.41742 3.8256 0 
84 1 4.41742 4.4632 0.901702 
85 1 5.52177 3.8256 0 
88 1 5.52177 4.4632 0.901702 
2129 1 4.41742 3.8256 0.676276 
2133 1 5.52177 3.8256 0.676276 
55 1 6.07395 3.5068 0.901702 
59 1 7.17831 3.5068 0.901702 
89 1 6.62613 3.8256 0 
92 1 6.62613 4.4632 0.901702 
2137 1 6.62613 3.8256 0.676276 
63 1 8.28266 3.5068 0.901702 
93 1 7.73048 3.8256 0 
96 1 7.73048 4.4632 0.901702 
2141 1 7.73048 3.8256 0.676276 
66 1 0.552177 4.782 0 
67 1 0.552177 5.4196 0.901702 
97 1 0 5.7384 0 
101 1 1.10435 5.7384 0 
2114 1 0.552177 4.782 0.676276 
2145 1 0 5.7384 0.676276 
2149 1 1.10435 5.7384 0.676276 
70 1 1.65653 4.782 0 
71 1 1.65653 5.4196 0.901702 
74 1 2.76089 4.782 0 
75 1 2.76089 5.4196 0.901702 
105 1 2.20871 5.7384 0 
2118 1 1.65653 4.782 0.676276 
2122 1 2.76089 4.782 0.676276 
2153 1 2.20871 5.7384 0.676276 
78 1 3.86524 4.782 0 
79 1 3.86524 5.4196 0.901702 
109 1 3.31306 5.7384 0 
2126 1 3.86524 4.782 0.676276 
2157 1 3.31306 5.7384 0.676276 
82 1 4.9696 4.782 0 
83 1 4.9696 5.4196 0.901702 
113 1 4.41742 5.7384 0 
117 1 5.52177 5.7384 0 
2130 1 4.9696 4.782 0.676276 
2161 1 4.41742 5.7384 0.676276 
2165 1 5.52177 5.7384 0.676276 
86 1 6.07395 4.782 0 
87 1 6.07395 5.4196 0.901702 
90 1 7.17831 4.782 0 
91 1 7.17831 5.4196 0.901702 
121 1 6.62613 5.7384 0 
2134 1 6.07395 4.782 0.676276 
2138 1 7.17831 4.782 0.676276 
2169 1 6.62613 5.7384 0.676276 
94 1 8.28266 4.782 0 
95 1 8.28266 5.4196 0.901702 
125 1 7.73048 5.7384 0 
2142 1 8.28266 4.782 0.676276 
2173 1 7.73048 5.7384 0.676276 
98 1 0.552177 6.69479 0 
99 1 0.552177 7.33239 0.901702 
100 1 0 6.37599 0.901702 
104 1 1.10435 6.37599 0.901702 
2146 1 0.552177 6.69479 0.676276 
102 1 1.65653 6.69479 0 
103 1 1.65653 7.33239 0.901702 
106 1 2.76089 6.69479 0 
107 1 2.76089 7.33239 0.901702 
108 1 2.20871 6.37599 0.901702 
2150 1 1.65653 6.69479 0.676276 
2154 1 2.76089 6.69479 0.676276 
110 1 3.86524 6.69479 0 
111 1 3.86524 7.33239 0.901702 
112 1 3.31306 6.37599 0.901702 
2158 1 3.86524 6.69479 0.676276 
114 1 4.9696 6.69479 0 
115 1 4.9696 7.33239 0.901702 
116 1 4.41742 6.37599 0.901702 
120 1 5.52177 6.37599 0.901702 
2162 1 4.9696 6.69479 0.676276 
118 1 6.07395 6.69479 0 
119 1 6.07395 7.33239 0.901702 
122 1 7.17831 6.69479 0 
123 1 7.17831 7.33239 0.901702 
124 1 6.62613 6.37599 0.901702 
2166 1 6.07395 6.69479 0.676276 
2170 1 7.17831 6.69479 0.676276 
126 1 8.28266 6.69479 0 
127 1 8.28266 7.33239 0.901702 
128 1 7.73048 6.37599 0.901702 
2174 1 8.28266 6.69479 0.676276 
129 1 0 7.65119 0 
130 1 0.552177 8.60759 0 
132 1 0 8.28879 0.901702 
133 1 1.10435 7.65119 0 
136 1 1.10435 8.28879 0.901702 
2177 1 0 7.65119 0.676276 
2178 1 0.552177 8.60759 0.676276 
2181 1 1.10435 7.65119 0.676276 
134 1 1.65653 8.60759 0 
137 1 2.20871 7.65119 0 
138 1 2.76089 8.60759 0 
140 1 2.20871 8.28879 0.901702 
2182 1 1.65653 8.60759 0.676276 
2185 1 2.20871 7.65119 0.676276 
2186 1 2.76089 8.60759 0.676276 
141 1 3.31306 7.65119 0 
142 1 3.86524 8.60759 0 
144 1 3.31306 8.28879 0.901702 
2189 1 3.31306 7.65119 0.676276 
2190 1 3.86524 8.60759 0.676276 
145 1 4.41742 7.65119 0 
146 1 4.9696 8.60759 0 
148 1 4.41742 8.28879 0.901702 
149 1 5.52177 7.65119 0 
152 1 5.52177 8.28879 0.901702 
2193 1 4.41742 7.65119 0.676276 
2194 1 4.9696 8.60759 0.676276 
2197 1 5.52177 7.65119 0.676276 
150 1 6.07395 8.60759 0 
153 1 6.62613 7.65119 0 
154 1 7.17831 8.60759 0 
156 1 6.62613 8.28879 0.901702 
2198 1 6.07395 8.60759 0.676276 
2201 1 6.62613 7.65119 0.676276 
2202 1 7.17831 8.60759 0.676276 
157 1 7.73048 7.65119 0 
158 1 8.28266 8.60759 0 
160 1 7.73048 8.28879 0.901702 
2205 1 7.73048 7.65119 0.676276 
2206 1 8.28266 8.60759 0.676276 
131 1 0.552177 9.24519 0.901702 
161 1 0 9.56399 0 
162 1 0.552177 10.5204 0 
164 1 0 10.2016 0.901702 
165 1 1.10435 9.56399 0 
168 1 1.10435 10.2016 0.901702 
2209 1 0 9.56399 0.676276 
2210 1 0.552177 10.5204 0.676276 
2213 1 1.10435 9.56399 0.676276 
135 1 1.65653 9.24519 0.901702 
139 1 2.76089 9.24519 0.901702 
166 1 1.65653 10.5204 0 
169 1 2.20871 9.56399 0 
170 1 2.76089 10.5204 0 
172 1 2.20871 10.2016 0.901702 
2214 1 1.65653 10.5204 0.676276 
2217 1 2.20871 9.56399 0.676276 
2218 1 2.76089 10.5204 0.676276 
143 1 3.86524 9.24519 0.901702 
173 1 3.31306 9.56399 0 
174 1 3.86524 10.5204 0 
176 1 3.31306 10.2016 0.901702 
2221 1 3.31306 9.56399 0.676276 
2222 1 3.86524 10.5204 0.676276 
147 1 4.9696 9.24519 0.901702 
177 1 4.41742 9.56399 0 
178 1 4.9696 10.5204 0 
180 1 4.41742 10.2016 0.901702 
181 1 5.52177 9.56399 0 
184 1 5.52177 10.2016 0.901702 
2225 1 4.41742 9.56399 0.676276 
2226 1 4.9696 10.5204 0.676276 
2229 1 5.52177 9.56399 0.676276 
151 1 6.07395 9.24519 0.901702 
155 1 7.17831 9.24519 0.901702 
182 1 6.07395 10.5204 0 
185 1 6.62613 9.56399 0 
186 1 7.17831 10.5204 0 
188 1 6.62613 10.2016 0.901702 
2230 1 6.07395 10.5204 0.676276 
2233 1 6.62613 9.56399 0.676276 
2234 1 7.17831 10.5204 0.676276 
159 1 8.28266 9.24519 0.901702 
189 1 7.73048 9.56399 0 
190 1 8.28266 10.5204 0 
192 1 7.73048 10.2016 0.901702 
2237 1 7.73048 9.56399 0.676276 
2238 1 8.28266 10.5204 0.676276 
163 1 0.552177 11.158 0.901702 
193 1 0 11.4768 0 
196 1 0 12.1144 0.901702 
197 1 1.10435 11.4768 0 
200 1 1.10435 12.1144 0.901702 
2241 1 0 11.4768 0.676276 
2245 1 1.10435 11.4768 0.676276 
167 1 1.65653 11.158 0.901702 
171 1 2.76089 11.158 0.901702 
201 1 2.20871 11.4768 0 
204 1 2.20871 12.1144 0.901702 
2249 1 2.20871 11.4768 0.676276 
175 1 3.86524 11.158 0.901702 
205 1 3.31306 11.4768 0 
208 1 3.31306 12.1144 0.901702 
2253 1 3.31306 11.4768 0.676276 
179 1 4.9696 11.158 0.901702 
209 1 4.41742 11.4768 0 
212 1 4.41742 12.1144 0.901702 
213 1 5.52177 11.4768 0 
216 1 5.52177 12.1144 0.901702 
2257 1 4.41742 11.4768 0.676276 
2261 1 5.52177 11.4768 0.676276 
183 1 6.07395 11.158 0.901702 
187 1 7.17831 11.158 0.901702 
217 1 6.62613 11.4768 0 
220 1 6.62613 12.1144 0.901702 
2265 1 6.62613 11.4768 0.676276 
191 1 8.28266 11.158 0.901702 
221 1 7.73048 11.4768 0 
224 1 7.73048 12.1144 0.901702 
2269 1 7.73048 11.4768 0.676276 
194 1 0.552177 12.4332 0 
195 1 0.552177 13.0708 0.901702 
225 1 0 13.3896 0 
229 1 1.10435 13.3896 0 
2242 1 0.552177 12.4332 0.676276 
2273 1 0 13.3896 0.676276 
2277 1 1.10435 13.3896 0.676276 
198 1 1.65653 12.4332 0 
199 1 1.65653 13.0708 0.901702 
202 1 2.76089 12.4332 0 
203 1 2.76089 13.0708 0.901702 
233 1 2.20871 13.3896 0 
2246 1 1.65653 12.4332 0.676276 
2250 1 2.76089 12.4332 0.676276 
2281 1 2.20871 13.3896 0.676276 
206 1 3.86524 12.4332 0 
207 1 3.86524 13.0708 0.901702 
237 1 3.31306 13.3896 0 
2254 1 3.86524 12.4332 0.676276 
2285 1 3.31306 13.3896 0.676276 
210 1 4.9696 12.4332 0 
211 1 4.9696 13.0708 0.901702 
241 1 4.41742 13.3896 0 
245 1 5.52177 13.3896 0 
2258 1 4.9696 12.4332 0.676276 
2289 1 4.41742 13.3896 0.676276 
2293 1 5.52177 13.3896 0.676276 
214 1 6.07395 12.4332 0 
215 1 6.07395 13.0708 0.901702 
218 1 7.17831 12.4332 0 
219 1 7.17831 13.0708 0.901702 
249 1 6.62613 13.3896 0 
2262 1 6.07395 12.4332 0.676276 
2266 1 7.17831 12.4332 0.676276 
2297 1 6.62613 13.3896 0.676276 
222 1 8.28266 12.4332 0 
223 1 8.28266 13.0708 0.901702 
253 1 7.73048 13.3896 0 
2270 1 8.28266 12.4332 0.676276 
2301 1 7.73048 13.3896 0.676276 
226 1 0.552177 14.346 0 
227 1 0.552177 14.9836 0.901702 
228 1 0 14.0272 0.901702 
232 1 1.10435 14.0272 0.901702 
2274 1 0.552177 14.346 0.676276 
230 1 1.65653 14.346 0 
231 1 1.65653 14.9836 0.901702 
234 1 2.76089 14.346 0 
235 1 2.76089 14.9836 0.901702 
236 1 2.20871 14.0272 0.901702 
2278 1 1.65653 14.346 0.676276 
2282 1 2.76089 14.346 0.676276 
238 1 3.86524 14.346 0 
239 1 3.86524 14.9836 0.901702 
240 1 3.31306 14.0272 0.901702 
2286 1 3.86524 14.346 0.676276 
242 1 4.9696 14.346 0 
243 1 4.9696 14.9836 0.901702 
244 1 4.41742 14.0272 0.901702 
248 1 5.52177 14.0272 0.901702 
2290 1 4.9696 14.346 0.676276 
246 1 6.07395 14.346 0 
247 1 6.07395 14.9836 0.901702 
250 1 7.17831 14.346 0 
251 1 7.17831 14.9836 0.901702 
252 1 6.62613 14.0272 0.901702 
2294 1 6.07395 14.346 0.676276 
2298 1 7.17831 14.346 0.676276 
254 1 8.28266 14.346 0 
255 1 8.28266 14.9836 0.901702 
256 1 7.73048 14.0272 0.901702 
2302 1 8.28266 14.346 0.676276 
257 1 0 0 1.8034 
258 1 0.552177 0.956399 1.8034 
260 1 0 0.637599 2.70511 
261 1 1.10435 0 1.8034 
264 1 1.10435 0.637599 2.70511 
2052 1 0 0.637599 1.57798 
2056 1 1.10435 0.637599 1.57798 
2305 1 0 0 2.47968 
2306 1 0.552177 0.956399 2.47968 
2309 1 1.10435 0 2.47968 
262 1 1.65653 0.956399 1.8034 
265 1 2.20871 0 1.8034 
266 1 2.76089 0.956399 1.8034 
268 1 2.20871 0.637599 2.70511 
2060 1 2.20871 0.637599 1.57798 
2310 1 1.65653 0.956399 2.47968 
2313 1 2.20871 0 2.47968 
2314 1 2.76089 0.956399 2.47968 
269 1 3.31306 0 1.8034 
270 1 3.86524 0.956399 1.8034 
272 1 3.31306 0.637599 2.70511 
2064 1 3.31306 0.637599 1.57798 
2317 1 3.31306 0 2.47968 
2318 1 3.86524 0.956399 2.47968 
273 1 4.41742 0 1.8034 
274 1 4.9696 0.956399 1.8034 
276 1 4.41742 0.637599 2.70511 
277 1 5.52177 0 1.8034 
280 1 5.52177 0.637599 2.70511 
2068 1 4.41742 0.637599 1.57798 
2072 1 5.52177 0.637599 1.57798 
2321 1 4.41742 0 2.47968 
2322 1 4.9696 0.956399 2.47968 
2325 1 5.52177 0 2.47968 
278 1 6.07395 0.956399 1.8034 
281 1 6.62613 0 1.8034 
282 1 7.17831 0.956399 1.8034 
284 1 6.62613 0.637599 2.70511 
2076 1 6.62613 0.637599 1.57798 
2326 1 6.07395 0.956399 2.47968 
2329 1 6.62613 0 2.47968 
2330 1 7.17831 0.956399 2.47968 
285 1 7.73048 0 1.8034 
286 1 8.28266 0.956399 1.8034 
288 1 7.73048 0.637599 2.70511 
2080 1 7.73048 0.637599 1.57798 
2333 1 7.73048 0 2.47968 
2334 1 8.28266 0.956399 2.47968 
259 1 0.552177 1.594 2.70511 
289 1 0 1.9128 1.8034 
290 1 0.552177 2.8692 1.8034 
292 1 0 2.5504 2.70511 
293 1 1.10435 1.9128 1.8034 
296 1 1.10435 2.5504 2.70511 
2051 1 0.552177 1.594 1.57798 
2084 1 0 2.5504 1.57798 
2088 1 1.10435 2.5504 1.57798 
2337 1 0 1.9128 2.47968 
2338 1 0.552177 2.8692 2.47968 
2341 1 1.10435 1.9128 2.47968 
263 1 1.65653 1.594 2.70511 
267 1 2.76089 1.594 2.70511 
294 1 1.65653 2.8692 1.8034 
297 1 2.20871 1.9128 1.8034 
298 1 2.76089 2.8692 1.8034 
300 1 2.20871 2.5504 2.70511 
2055 1 1.65653 1.594 1.57798 
2059 1 2.76089 1.594 1.57798 
2092 1 2.20871 2.5504 1.57798 
2342 1 1.65653 2.8692 2.47968 
2345 1 2.20871 1.9128 2.47968 
2346 1 2.76089 2.8692 2.47968 
271 1 3.86524 1.594 2.70511 
301 1 3.31306 1.9128 1.8034 
302 1 3.86524 2.8692 1.8034 
304 1 3.31306 2.5504 2.70511 
2063 1 3.86524 1.594 1.57798 
2096 1 3.31306 2.5504 1.57798 
2349 1 3.31306 1.9128 2.47968 
2350 1 3.86524 2.8692 2.47968 
275 1 4.9696 1.594 2.70511 
305 1 4.41742 1.9128 1.8034 
306 1 4.9696 2.8692 1.8034 
308 1 4.41742 2.5504 2.70511 
309 1 5.52177 1.9128 1.8034 
312 1 5.52177 2.5504 2.70511 
2067 1 4.9696 1.594 1.57798 
2100 1 4.41742 2.5504 1.57798 
2104 1 5.52177 2.5504 1.57798 
2353 1 4.41742 1.9128 2.47968 
2354 1 4.9696 2.8692 2.47968 
2357 1 5.52177 1.9128 2.47968 
279 1 6.07395 1.594 2.70511 
283 1 7.17831 1.594 2.70511 
310 1 6.07395 2.8692 1.8034 
313 1 6.62613 1.9128 1.8034 
314 1 7.17831 2.8692 1.8034 
316 1 6.62613 2.5504 2.70511 
2071 1 6.07395 1.594 1.57798 
2075 1 7.17831 1.594 1.57798 
2108 1 6.62613 2.5504 1.57798 
2358 1 6.07395 2.8692 2.47968 
2361 1 6.62613 1.9128 2.47968 
2362 1 7.17831 2.8692 2.47968 
287 1 8.28266 1.594 2.70511 
317 1 7.73048 1.9128 1.8034 
318 1 8.28266 2.8692 1.8034 
320 1 7.73048 2.5504 2.70511 
2079 1 8.28266 1.594 1.57798 
2112 1 7.73048 2.5504 1.57798 
2365 1 7.73048 1.9128 2.47968 
2366 1 8.28266 2.8692 2.47968 
291 1 0.552177 3.5068 2.70511 
321 1 0 3.8256 1.8034 
324 1 0 4.4632 2.70511 
325 1 1.10435 3.8256 1.8034 
328 1 1.10435 4.4632 2.70511 
2083 1 0.552177 3.5068 1.57798 
2116 1 0 4.4632 1.57798 
2120 1 1.10435 4.4632 1.57798 
2369 1 0 3.8256 2.47968 
2373 1 1.10435 3.8256 2.47968 
295 1 1.65653 3.5068 2.70511 
299 1 2.76089 3.5068 2.70511 
329 1 2.20871 3.8256 1.8034 
332 1 2.20871 4.4632 2.70511 
2087 1 1.65653 3.5068 1.57798 
2091 1 2.76089 3.5068 1.57798 
2124 1 2.20871 4.4632 1.57798 
2377 1 2.20871 3.8256 2.47968 
303 1 3.86524 3.5068 2.70511 
333 1 3.31306 3.8256 1.8034 
336 1 3.31306 4.4632 2.70511 
2095 1 3.86524 3.5068 1.57798 
2128 1 3.31306 4.4632 1.57798 
2381 1 3.31306 3.8256 2.47968 
307 1 4.9696 3.5068 2.70511 
337 1 4.41742 3.8256 1.8034 
340 1 4.41742 4.4632 2.70511 
341 1 5.52177 3.8256 1.8034 
344 1 5.52177 4.4632 2.70511 
2099 1 4.9696 3.5068 1.57798 
2132 1 4.41742 4.4632 1.57798 
2136 1 5.52177 4.4632 1.57798 
2385 1 4.41742 3.8256 2.47968 
2389 1 5.52177 3.8256 2.47968 
311 1 6.07395 3.5068 2.70511 
315 1 7.17831 3.5068 2.70511 
345 1 6.62613 3.8256 1.8034 
348 1 6.62613 4.4632 2.70511 
2103 1 6.07395 3.5068 1.57798 
2107 1 7.17831 3.5068 1.57798 
2140 1 6.62613 4.4632 1.57798 
2393 1 6.62613 3.8256 2.47968 
319 1 8.28266 3.5068 2.70511 
349 1 7.73048 3.8256 1.8034 
352 1 7.73048 4.4632 2.70511 
2111 1 8.28266 3.5068 1.57798 
2144 1 7.73048 4.4632 1.57798 
2397 1 7.73048 3.8256 2.47968 
322 1 0.552177 4.782 1.8034 
323 1 0.552177 5.4196 2.70511 
353 1 0 5.7384 1.8034 
357 1 1.10435 5.7384 1.8034 
2115 1 0.552177 5.4196 1.57798 
2370 1 0.552177 4.782 2.47968 
2401 1 0 5.7384 2.47968 
2405 1 1.10435 5.7384 2.47968 
326 1 1.65653 4.782 1.8034 
327 1 1.65653 5.4196 2.70511 
330 1 2.76089 4.782 1.8034 
331 1 2.76089 5.4196 2.70511 
361 1 2.20871 5.7384 1.8034 
2119 1 1.65653 5.4196 1.57798 
2123 1 2.76089 5.4196 1.57798 
2374 1 1.65653 4.782 2.47968 
2378 1 2.76089 4.782 2.47968 
2409 1 2.20871 5.7384 2.47968 
334 1 3.86524 4.782 1.8034 
335 1 3.86524 5.4196 2.70511 
365 1 3.31306 5.7384 1.8034 
2127 1 3.86524 5.4196 1.57798 
2382 1 3.86524 4.782 2.47968 
2413 1 3.31306 5.7384 2.47968 
338 1 4.9696 4.782 1.8034 
339 1 4.9696 5.4196 2.70511 
369 1 4.41742 5.7384 1.8034 
373 1 5.52177 5.7384 1.8034 
2131 1 4.9696 5.4196 1.57798 
2386 1 4.9696 4.782 2.47968 
2417 1 4.41742 5.7384 2.47968 
2421 1 5.52177 5.7384 2.47968 
342 1 6.07395 4.782 1.8034 
343 1 6.07395 5.4196 2.70511 
346 1 7.17831 4.782 1.8034 
347 1 7.17831 5.4196 2.70511 
377 1 6.62613 5.7384 1.8034 
2135 1 6.07395 5.4196 1.57798 
2139 1 7.17831 5.4196 1.57798 
2390 1 6.07395 4.782 2.47968 
2394 1 7.17831 4.782 2.47968 
2425 1 6.62613 5.7384 2.47968 
350 1 8.28266 4.782 1.8034 
351 1 8.28266 5.4196 2.70511 
381 1 7.73048 5.7384 1.8034 
2143 1 8.28266 5.4196 1.57798 
2398 1 8.28266 4.782 2.47968 
2429 1 7.73048 5.7384 2.47968 
354 1 0.552177 6.69479 1.8034 
355 1 0.552177 7.33239 2.70511 
356 1 0 6.37599 2.70511 
360 1 1.10435 6.37599 2.70511 
2147 1 0.552177 7.33239 1.57798 
2148 1 0 6.37599 1.57798 
2152 1 1.10435 6.37599 1.57798 
2402 1 0.552177 6.69479 2.47968 
358 1 1.65653 6.69479 1.8034 
359 1 1.65653 7.33239 2.70511 
362 1 2.76089 6.69479 1.8034 
363 1 2.76089 7.33239 2.70511 
364 1 2.20871 6.37599 2.70511 
2151 1 1.65653 7.33239 1.57798 
2155 1 2.76089 7.33239 1.57798 
2156 1 2.20871 6.37599 1.57798 
2406 1 1.65653 6.69479 2.47968 
2410 1 2.76089 6.69479 2.47968 
366 1 3.86524 6.69479 1.8034 
367 1 3.86524 7.33239 2.70511 
368 1 3.31306 6.37599 2.70511 
2159 1 3.86524 7.33239 1.57798 
2160 1 3.31306 6.37599 1.57798 
2414 1 3.86524 6.69479 2.47968 
370 1 4.9696 6.69479 1.8034 
371 1 4.9696 7.33239 2.70511 
372 1 4.41742 6.37599 2.70511 
376 1 5.52177 6.37599 2.70511 
2163 1 4.9696 7.33239 1.57798 
2164 1 4.41742 6.37599 1.57798 
2168 1 5.52177 6.37599 1.57798 
2418 1 4.9696 6.69479 2.47968 
374 1 6.07395 6.69479 1.8034 
375 1 6.07395 7.33239 2.70511 
378 1 7.17831 6.69479 1.8034 
379 1 7.17831 7.33239 2.70511 
380 1 6.62613 6.37599 2.70511 
2167 1 6.07395 7.33239 1.57798 
2171 1 7.17831 7.33239 1.57798 
2172 1 6.62613 6.37599 1.57798 
2422 1 6.07395 6.69479 2.47968 
2426 1 7.17831 6.69479 2.47968 
382 1 8.28266 6.69479 1.8034 
383 1 8.28266 7.33239 2.70511 
384 1 7.73048 6.37599 2.70511 
2175 1 8.28266 7.33239 1.57798 
2176 1 7.73048 6.37599 1.57798 
2430 1 8.28266 6.69479 2.47968 
385 1 0 7.65119 1.8034 
386 1 0.552177 8.60759 1.8034 
388 1 0 8.28879 2.70511 
389 1 1.10435 7.65119 1.8034 
392 1 1.10435 8.28879 2.70511 
2180 1 0 8.28879 1.57798 
2184 1 1.10435 8.28879 1.57798 
2433 1 0 7.65119 2.47968 
2434 1 0.552177 8.60759 2.47968 
2437 1 1.10435 7.65119 2.47968 
390 1 1.65653 8.60759 1.8034 
393 1 2.20871 7.65119 1.8034 
394 1 2.76089 8.60759 1.8034 
396 1 2.20871 8.28879 2.70511 
2188 1 2.20871 8.28879 1.57798 
2438 1 1.65653 8.60759 2.47968 
2441 1 2.20871 7.65119 2.47968 
2442 1 2.76089 8.60759 2.47968 
397 1 3.31306 7.65119 1.8034 
398 1 3.86524 8.60759 1.8034 
400 1 3.31306 8.28879 2.70511 
2192 1 3.31306 8.28879 1.57798 
2445 1 3.31306 7.65119 2.47968 
2446 1 3.86524 8.60759 2.47968 
401 1 4.41742 7.65119 1.8034 
402 1 4.9696 8.60759 1.8034 
404 1 4.41742 8.28879 2.70511 
405 1 5.52177 7.65119 1.8034 
408 1 5.52177 8.28879 2.70511 
2196 1 4.41742 8.28879 1.57798 
2200 1 5.52177 8.28879 1.57798 
2449 1 4.41742 7.65119 2.47968 
2450 1 4.9696 8.60759 2.47968 
2453 1 5.52177 7.65119 2.47968 
406 1 6.07395 8.60759 1.8034 
409 1 6.62613 7.65119 1.8034 
410 1 7.17831 8.60759 1.8034 
412 1 6.62613 8.28879 2.70511 
2204 1 6.62613 8.28879 1.57798 
2454 1 6.07395 8.60759 2.47968 
2457 1 6.62613 7.65119 2.47968 
2458 1 7.17831 8.60759 2.47968 
413 1 7.73048 7.65119 1.8034 
414 1 8.28266 8.60759 1.8034 
416 1 7.73048 8.28879 2.70511 
2208 1 7.73048 8.28879 1.57798 
2461 1 7.73048 7.65119 2.47968 
2462 1 8.28266 8.60759 2.47968 
387 1 0.552177 9.24519 2.70511 
417 1 0 9.56399 1.8034 
418 1 0.552177 10.5204 1.8034 
420 1 0 10.2016 2.70511 
421 1 1.10435 9.56399 1.8034 
424 1 1.10435 10.2016 2.70511 
2179 1 0.552177 9.24519 1.57798 
2212 1 0 10.2016 1.57798 
2216 1 1.10435 10.2016 1.57798 
2465 1 0 9.56399 2.47968 
2466 1 0.552177 10.5204 2.47968 
2469 1 1.10435 9.56399 2.47968 
391 1 1.65653 9.24519 2.70511 
395 1 2.76089 9.24519 2.70511 
422 1 1.65653 10.5204 1.8034 
425 1 2.20871 9.56399 1.8034 
426 1 2.76089 10.5204 1.8034 
428 1 2.20871 10.2016 2.70511 
2183 1 1.65653 9.24519 1.57798 
2187 1 2.76089 9.24519 1.57798 
2220 1 2.20871 10.2016 1.57798 
2470 1 1.65653 10.5204 2.47968 
2473 1 2.20871 9.56399 2.47968 
2474 1 2.76089 10.5204 2.47968 
399 1 3.86524 9.24519 2.70511 
429 1 3.31306 9.56399 1.8034 
430 1 3.86524 10.5204 1.8034 
432 1 3.31306 10.2016 2.70511 
2191 1 3.86524 9.24519 1.57798 
2224 1 3.31306 10.2016 1.57798 
2477 1 3.31306 9.56399 2.47968 
2478 1 3.86524 10.5204 2.47968 
403 1 4.9696 9.24519 2.70511 
433 1 4.41742 9.56399 1.8034 
434 1 4.9696 10.5204 1.8034 
436 1 4.41742 10.2016 2.70511 
437 1 5.52177 9.56399 1.8034 
440 1 5.52177 10.2016 2.70511 
2195 1 4.9696 9.24519 1.57798 
2228 1 4.41742 10.2016 1.57798 
2232 1 5.52177 10.2016 1.57798 
2481 1 4.41742 9.56399 2.47968 
2482 1 4.9696 10.5204 2.47968 
2485 1 5.52177 9.56399 2.47968 
407 1 6.07395 9.24519 2.70511 
411 1 7.17831 9.24519 2.70511 
438 1 6.07395 10.5204 1.8034 
441 1 6.62613 9.56399 1.8034 
442 1 7.17831 10.5204 1.8034 
444 1 6.62613 10.2016 2.70511 
2199 1 6.07395 9.24519 1.57798 
2203 1 7.17831 9.24519 1.57798 
2236 1 6.62613 10.2016 1.57798 
2486 1 6.07395 10.5204 2.47968 
2489 1 6.62613 9.56399 2.47968 
2490 1 7.17831 10.5204 2.47968 
415 1 8.28266 9.24519 2.70511 
445 1 7.73048 9.56399 1.8034 
446 1 8.28266 10.5204 1.8034 
448 1 7.73048 10.2016 2.70511 
2207 1 8.28266 9.24519 1.57798 
2240 1 7.73048 10.2016 1.57798 
2493 1 7.73048 9.56399 2.47968 
2494 1 8.28266 10.5204 2.47968 
419 1 0.552177 11.158 2.70511 
449 1 0 11.4768 1.8034 
452 1 0 12.1144 2.70511 
453 1 1.10435 11.4768 1.8034 
456 1 1.10435 12.1144 2.70511 
2211 1 0.552177 11.158 1.57798 
2244 1 0 12.1144 1.57798 
2248 1 1.10435 12.1144 1.57798 
2497 1 0 11.4768 2.47968 
2501 1 1.10435 11.4768 2.47968 
423 1 1.65653 11.158 2.70511 
427 1 2.76089 11.158 2.70511 
457 1 2.20871 11.4768 1.8034 
460 1 2.20871 12.1144 2.70511 
2215 1 1.65653 11.158 1.57798 
2219 1 2.76089 11.158 1.57798 
2252 1 2.20871 12.1144 1.57798 
2505 1 2.20871 11.4768 2.47968 
431 1 3.86524 11.158 2.70511 
461 1 3.31306 11.4768 1.8034 
464 1 3.31306 12.1144 2.70511 
2223 1 3.86524 11.158 1.57798 
2256 1 3.31306 12.1144 1.57798 
2509 1 3.31306 11.4768 2.47968 
435 1 4.9696 11.158 2.70511 
465 1 4.41742 11.4768 1.8034 
468 1 4.41742 12.1144 2.70511 
469 1 5.52177 11.4768 1.8034 
472 1 5.52177 12.1144 2.70511 
2227 1 4.9696 11.158 1.57798 
2260 1 4.41742 12.1144 1.57798 
2264 1 5.52177 12.1144 1.57798 
2513 1 4.41742 11.4768 2.47968 
2517 1 5.52177 11.4768 2.47968 
439 1 6.07395 11.158 2.70511 
443 1 7.17831 11.158 2.70511 
473 1 6.62613 11.4768 1.8034 
476 1 6.62613 12.1144 2.70511 
2231 1 6.07395 11.158 1.57798 
2235 1 7.17831 11.158 1.57798 
2268 1 6.62613 12.1144 1.57798 
2521 1 6.62613 11.4768 2.47968 
447 1 8.28266 11.158 2.70511 
477 1 7.73048 11.4768 1.8034 
480 1 7.73048 12.1144 2.70511 
2239 1 8.28266 11.158 1.57798 
2272 1 7.73048 12.1144 1.57798 
2525 1 7.73048 11.4768 2.47968 
450 1 0.552177 12.4332 1.8034 
451 1 0.552177 13.0708 2.70511 
481 1 0 13.3896 1.8034 
485 1 1.10435 13.3896 1.8034 
2243 1 0.552177 13.0708 1.57798 
2498 1 0.552177 12.4332 2.47968 
2529 1 0 13.3896 2.47968 
2533 1 1.10435 13.3896 2.47968 
454 1 1.65653 12.4332 1.8034 
455 1 1.65653 13.0708 2.70511 
458 1 2.76089 12.4332 1.8034 
459 1 2.76089 13.0708 2.70511 
489 1 2.20871 13.3896 1.8034 
2247 1 1.65653 13.0708 1.57798 
2251 1 2.76089 13.0708 1.57798 
2502 1 1.65653 12.4332 2.47968 
2506 1 2.76089 12.4332 2.47968 
2537 1 2.20871 13.3896 2.47968 
462 1 3.86524 12.4332 1.8034 
463 1 3.86524 13.0708 2.70511 
493 1 3.31306 13.3896 1.8034 
2255 1 3.86524 13.0708 1.57798 
2510 1 3.86524 12.4332 2.47968 
2541 1 3.31306 13.3896 2.47968 
466 1 4.9696 12.4332 1.8034 
467 1 4.9696 13.0708 2.70511 
497 1 4.41742 13.3896 1.8034 
501 1 5.52177 13.3896 1.8034 
2259 1 4.9696 13.0708 1.57798 
2514 1 4.9696 12.4332 2.47968 
2545 1 4.41742 13.3896 2.47968 
2549 1 5.52177 13.3896 2.47968 
470 1 6.07395 12.4332 1.8034 
471 1 6.07395 13.0708 2.70511 
474 1 7.17831 12.4332 1.8034 
475 1 7.17831 13.0708 2.70511 
505 1 6.62613 13.3896 1.8034 
2263 1 6.07395 13.0708 1.57798 
2267 1 7.17831 13.0708 1.57798 
2518 1 6.07395 12.4332 2.47968 
2522 1 7.17831 12.4332 2.47968 
2553 1 6.62613 13.3896 2.47968 
478 1 8.28266 12.4332 1.8034 
479 1 8.28266 13.0708 2.70511 
509 1 7.73048 13.3896 1.8034 
2271 1 8.28266 13.0708 1.57798 
2526 1 8.28266 12.4332 2.47968 
2557 1 7.73048 13.3896 2.47968 
482 1 0.552177 14.346 1.8034 
483 1 0.552177 14.9836 2.70511 
484 1 0 14.0272 2.70511 
488 1 1.10435 14.0272 2.70511 
2275 1 0.552177 14.9836 1.57798 
2276 1 0 14.0272 1.57798 
2280 1 1.10435 14.0272 1.57798 
2530 1 0.552177 14.346 2.47968 
486 1 1.65653 14.346 1.8034 
487 1 1.65653 14.9836 2.70511 
490 1 2.76089 14.346 1.8034 
491 1 2.76089 14.9836 2.70511 
492 1 2.20871 14.0272 2.70511 
2279 1 1.65653 14.9836 1.57798 
2283 1 2.76089 14.9836 1.57798 
2284 1 2.20871 14.0272 1.57798 
2534 1 1.65653 14.346 2.47968 
2538 1 2.76089 14.346 2.47968 
494 1 3.86524 14.346 1.8034 
495 1 3.86524 14.9836 2.70511 
496 1 3.31306 14.0272 2.70511 
2287 1 3.86524 14.9836 1.57798 
2288 1 3.31306 14.0272 1.57798 
2542 1 3.86524 14.346 2.47968 
498 1 4.9696 14.346 1.8034 
499 1 4.9696 14.9836 2.70511 
500 1 4.41742 14.0272 2.70511 
504 1 5.52177 14.0272 2.70511 
2291 1 4.9696 14.9836 1.57798 
2292 1 4.41742 14.0272 1.57798 
2296 1 5.52177 14.0272 1.57798 
2546 1 4.9696 14.346 2.47968 
502 1 6.07395 14.346 1.8034 
503 1 6.07395 14.9836 2.70511 
506 1 7.17831 14.346 1.8034 
507 1 7.17831 14.9836 2.70511 
508 1 6.62613 14.0272 2.70511 
2295 1 6.07395 14.9836 1.57798 
2299 1 7.17831 14.9836 1.57798 
2300 1 6.62613 14.0272 1.57798 
2550 1 6.07395 14.346 2.47968 
2554 1 7.17831 14.346 2.47968 
510 1 8.28266 14.346 1.8034 
511 1 8.28266 14.9836 2.70511 
512 1 7.73048 14.0272 2.70511 
2303 1 8.28266 14.9836 1.57798 
2304 1 7.73048 14.0272 1.57798 
2558 1 8.28266 14.346 2.47968 
513 1 0 0 3.60681 
514 1 0.552177 0.956399 3.60681 
517 1 1.10435 0 3.60681 
2308 1 0 0.637599 3.38138 
2312 1 1.10435 0.637599 3.38138 
2561 1 0 0 4.28308 
2562 1 0.552177 0.956399 4.28308 
2565 1 1.10435 0 4.28308 
518 1 1.65653 0.956399 3.60681 
521 1 2.20871 0 3.60681 
522 1 2.76089 0.956399 3.60681 
2316 1 2.20871 0.637599 3.38138 
2566 1 1.65653 0.956399 4.28308 
2569 1 2.20871 0 4.28308 
2570 1 2.76089 0.956399 4.28308 
525 1 3.31306 0 3.60681 
526 1 3.86524 0.956399 3.60681 
2320 1 3.31306 0.637599 3.38138 
2573 1 3.31306 0 4.28308 
2574 1 3.86524 0.956399 4.28308 
529 1 4.41742 0 3.60681 
530 1 4.9696 0.956399 3.60681 
533 1 5.52177 0 3.60681 
2324 1 4.41742 0.637599 3.38138 
2328 1 5.52177 0.637599 3.38138 
2577 1 4.41742 0 4.28308 
2578 1 4.9696 0.956399 4.28308 
2581 1 5.52177 0 4.28308 
534 1 6.07395 0.956399 3.60681 
537 1 6.62613 0 3.60681 
538 1 7.17831 0.956399 3.60681 
2332 1 6.62613 0.637599 3.38138 
2582 1 6.07395 0.956399 4.28308 
2585 1 6.62613 0 4.28308 
2586 1 7.17831 0.956399 4.28308 
541 1 7.73048 0 3.60681 
542 1 8.28266 0.956399 3.60681 
2336 1 7.73048 0.637599 3.38138 
2589 1 7.73048 0 4.28308 
2590 1 8.28266 0.956399 4.28308 
545 1 0 1.9128 3.60681 
546 1 0.552177 2.8692 3.60681 
549 1 1.10435 1.9128 3.60681 
2307 1 0.552177 1.594 3.38138 
2340 1 0 2.5504 3.38138 
2344 1 1.10435 2.5504 3.38138 
2593 1 0 1.9128 4.28308 
2594 1 0.552177 2.8692 4.28308 
2597 1 1.10435 1.9128 4.28308 
550 1 1.65653 2.8692 3.60681 
553 1 2.20871 1.9128 3.60681 
554 1 2.76089 2.8692 3.60681 
2311 1 1.65653 1.594 3.38138 
2315 1 2.76089 1.594 3.38138 
2348 1 2.20871 2.5504 3.38138 
2598 1 1.65653 2.8692 4.28308 
2601 1 2.20871 1.9128 4.28308 
2602 1 2.76089 2.8692 4.28308 
557 1 3.31306 1.9128 3.60681 
558 1 3.86524 2.8692 3.60681 
2319 1 3.86524 1.594 3.38138 
2352 1 3.31306 2.5504 3.38138 
2605 1 3.31306 1.9128 4.28308 
2606 1 3.86524 2.8692 4.28308 
561 1 4.41742 1.9128 3.60681 
562 1 4.9696 2.8692 3.60681 
565 1 5.52177 1.9128 3.60681 
2323 1 4.9696 1.594 3.38138 
2356 1 4.41742 2.5504 3.38138 
2360 1 5.52177 2.5504 3.38138 
2609 1 4.41742 1.9128 4.28308 
2610 1 4.9696 2.8692 4.28308 
2613 1 5.52177 1.9128 4.28308 
566 1 6.07395 2.8692 3.60681 
569 1 6.62613 1.9128 3.60681 
570 1 7.17831 2.8692 3.60681 
2327 1 6.07395 1.594 3.38138 
2331 1 7.17831 1.594 3.38138 
2364 1 6.62613 2.5504 3.38138 
2614 1 6.07395 2.8692 4.28308 
2617 1 6.62613 1.9128 4.28308 
2618 1 7.17831 2.8692 4.28308 
573 1 7.73048 1.9128 3.60681 
574 1 8.28266 2.8692 3.60681 
2335 1 8.28266 1.594 3.38138 
2368 1 7.73048 2.5504 3.38138 
2621 1 7.73048 1.9128 4.28308 
2622 1 8.28266 2.8692 4.28308 
577 1 0 3.8256 3.60681 
581 1 1.10435 3.8256 3.60681 
2339 1 0.552177 3.5068 3.38138 
2372 1 0 4.4632 3.38138 
2376 1 1.10435 4.4632 3.38138 
2625 1 0 3.8256 4.28308 
2629 1 1.10435 3.8256 4.28308 
585 1 2.20871 3.8256 3.60681 
2343 1 1.65653 3.5068 3.38138 
2347 1 2.76089 3.5068 3.38138 
2380 1 2.20871 4.4632 3.38138 
2633 1 2.20871 3.8256 4.28308 
589 1 3.31306 3.8256 3.60681 
2351 1 3.86524 3.5068 3.38138 
2384 1 3.31306 4.4632 3.38138 
2637 1 3.31306 3.8256 4.28308 
593 1 4.41742 3.8256 3.60681 
597 1 5.52177 3.8256 3.60681 
2355 1 4.9696 3.5068 3.38138 
2388 1 4.41742 4.4632 3.38138 